REMARK  Name = 2662
REMARK  6 active torsions:
REMARK  status: ('A' for Active; 'I' for Inactive)
REMARK    1  A    between atoms: S_1  and  N_9
REMARK    2  A    between atoms: S_1  and  C_17
REMARK    3  A    between atoms: N_7  and  C_11
REMARK    4  A    between atoms: C_10  and  C_12
REMARK    5  A    between atoms: C_14  and  C_25
REMARK    6  A    between atoms: C_22  and  C_26
REMARK                            x       y       z     vdW  Elec       q    Type
REMARK                         _______ _______ _______ _____ _____    ______ ____
ROOT
ATOM      1  N   UNL     1       7.027   0.097  -0.232  0.00  0.00    +0.000 N 
ATOM      2  N   UNL     1       7.765   0.885   0.598  0.00  0.00    +0.000 NA
ATOM      3  C   UNL     1       7.836  -0.578  -1.152  0.00  0.00    +0.000 A 
ATOM      4  C   UNL     1       9.129  -0.382  -0.699  0.00  0.00    +0.000 A 
ATOM      5  C   UNL     1       9.040   0.506   0.398  0.00  0.00    +0.000 A 
ENDROOT
BRANCH   3   6
ATOM      6  C   UNL     1       7.380  -1.307  -2.346  0.00  0.00    +0.000 A 
ATOM      7  C   UNL     1       6.304  -0.843  -3.117  0.00  0.00    +0.000 A 
ATOM      8  C   UNL     1       8.010  -2.494  -2.738  0.00  0.00    +0.000 A 
ATOM      9  C   UNL     1       6.399  -2.808  -4.531  0.00  0.00    +0.000 A 
ATOM     10  C   UNL     1       5.797  -1.600  -4.176  0.00  0.00    +0.000 A 
ATOM     11  C   UNL     1       7.528  -3.235  -3.823  0.00  0.00    +0.000 A 
ATOM     12  C   UNL     1       5.856  -3.634  -5.659  0.00  0.00    +0.000 C 
ENDBRANCH   3   6
BRANCH   1  13
ATOM     13  C   UNL     1       5.614   0.036  -0.057  0.00  0.00    +0.000 A 
ATOM     14  C   UNL     1       4.921   1.156   0.431  0.00  0.00    +0.000 A 
ATOM     15  C   UNL     1       4.907  -1.134  -0.370  0.00  0.00    +0.000 A 
ATOM     16  C   UNL     1       2.830  -0.027   0.153  0.00  0.00    +0.000 A 
ATOM     17  C   UNL     1       3.524   1.128   0.526  0.00  0.00    +0.000 A 
ATOM     18  C   UNL     1       3.517  -1.165  -0.274  0.00  0.00    +0.000 A 
BRANCH  16  19
ATOM     19  S   UNL     1       1.068  -0.107   0.294  0.00  0.00    +0.000 S 
ATOM     20  O   UNL     1       0.668  -1.484   0.453  0.00  0.00    +0.000 OA
ATOM     21  O   UNL     1       0.614   0.937   1.178  0.00  0.00    +0.000 OA
BRANCH  19  22
ATOM     22  N   UNL     1       0.569   0.343  -1.245  0.00  0.00    +0.000 NA
ATOM     23  H   UNL     1       0.127  -0.450  -1.710  0.00  0.00    +0.000 HD
ATOM     24  H   UNL     1      -0.037   1.163  -1.177  0.00  0.00    +0.000 HD
ENDBRANCH  19  22
ENDBRANCH  16  19
ENDBRANCH   1  13
BRANCH   5  28
ATOM     25  F   UNL     1       9.836   1.825   2.241  0.00  0.00    +0.000 F 
ATOM     26  F   UNL     1      10.862  -0.050   1.802  0.00  0.00    +0.000 F 
ATOM     27  F   UNL     1      11.111   1.659   0.476  0.00  0.00    +0.000 F 
ATOM     28  C   UNL     1      10.197   0.991   1.230  0.00  0.00    +0.000 C 
ENDBRANCH   5  28
TORSDOF 5
